# Wall shear stress
# Time        	patch         	min           	max           
0.5           	upperWall	(-2.950214e-04 -8.512223e-20 -1.434140e-05)	(7.767010e-05 1.762225e-19 1.091349e-04)
0.5           	lowerWall	(-1.473391e-03 -1.871405e-19 -3.290658e-03)	(1.412144e-03 4.808369e-19 3.861321e-04)
1             	upperWall	(-3.300984e-04 -8.573794e-20 -2.211700e-05)	(7.949791e-05 1.107032e-19 8.085680e-05)
1             	lowerWall	(-1.301455e-03 -8.596474e-19 -5.184483e-03)	(1.791679e-03 2.111198e-19 8.333983e-04)
1.5           	upperWall	(-3.129706e-04 -7.728740e-20 -3.809169e-05)	(9.827994e-05 1.062292e-19 8.645715e-05)
1.5           	lowerWall	(-1.303272e-03 -8.911387e-19 -6.456951e-03)	(1.554272e-03 3.462057e-19 8.275531e-04)
2             	upperWall	(-3.215126e-04 -8.433672e-20 -4.644742e-05)	(1.091179e-04 1.065405e-19 9.323008e-05)
2             	lowerWall	(-1.306155e-03 -1.051333e-18 -6.984774e-03)	(1.408237e-03 2.966695e-19 1.326814e-03)
2.5           	upperWall	(-3.137960e-04 -9.590257e-20 -4.875891e-05)	(1.609510e-04 1.165197e-19 9.083147e-05)
2.5           	lowerWall	(-1.467183e-03 -1.187922e-18 -5.941307e-03)	(4.855940e-03 7.212102e-19 1.484472e-02)
3             	upperWall	(-4.046411e-04 -1.129136e-19 -4.857959e-05)	(1.914612e-04 1.295574e-19 8.932897e-05)
3             	lowerWall	(-1.771505e-03 -1.348846e-18 -5.973695e-03)	(3.277351e-03 4.612249e-19 5.715531e-03)
3.5           	upperWall	(-6.006253e-04 -1.379426e-19 -5.212406e-05)	(1.917501e-04 1.503345e-19 6.677344e-05)
3.5           	lowerWall	(-1.755268e-03 -1.632130e-18 -6.186656e-03)	(3.242309e-03 3.539642e-19 5.089841e-03)
4             	upperWall	(-9.276697e-04 -1.230514e-18 -5.958344e-05)	(2.146480e-04 1.785286e-19 8.141524e-05)
4             	lowerWall	(-1.477048e-03 -1.812517e-18 -6.355663e-03)	(3.785542e-03 6.199080e-19 5.165301e-03)
4.5           	upperWall	(-1.410763e-03 -2.224299e-19 -7.750967e-05)	(2.314204e-04 2.488551e-19 1.226113e-04)
4.5           	lowerWall	(-1.310138e-03 -1.899744e-18 -6.377771e-03)	(3.679408e-03 3.356852e-19 5.383007e-03)
5             	upperWall	(-2.049656e-03 -3.219157e-19 -7.519434e-05)	(2.428561e-04 3.836995e-19 1.400821e-04)
5             	lowerWall	(-1.422432e-03 -1.942677e-18 -6.360873e-03)	(3.268633e-03 3.120293e-19 5.377409e-03)
5.5           	upperWall	(-2.821532e-03 -5.010102e-19 -7.142728e-05)	(2.538674e-04 5.604076e-19 1.480557e-04)
5.5           	lowerWall	(-1.534715e-03 -1.417104e-18 -6.388060e-03)	(3.154018e-03 6.128930e-19 5.676386e-03)
6             	upperWall	(-3.662528e-03 -7.728091e-19 -9.105326e-05)	(2.655928e-04 7.882180e-19 1.293063e-04)
6             	lowerWall	(-1.655552e-03 -4.832644e-19 -6.439346e-03)	(3.611190e-03 5.385248e-19 5.728083e-03)
6.5           	upperWall	(-4.504779e-03 -1.082892e-18 -9.281688e-05)	(2.769084e-04 1.047578e-18 1.380543e-04)
6.5           	lowerWall	(-1.742964e-03 -1.575280e-19 -6.402516e-03)	(3.660726e-03 2.021763e-19 5.834969e-03)
7             	upperWall	(-5.345792e-03 -1.375422e-18 -8.730612e-05)	(2.875744e-04 1.337122e-18 1.427672e-04)
7             	lowerWall	(-1.794643e-03 -2.846538e-19 -6.316538e-03)	(3.380272e-03 2.226225e-19 5.814614e-03)
7.5           	upperWall	(-6.114050e-03 -1.605160e-18 -8.728817e-05)	(2.984427e-04 1.601229e-18 1.457256e-04)
7.5           	lowerWall	(-1.829422e-03 -2.659355e-19 -6.191416e-03)	(3.174847e-03 1.593076e-19 5.946908e-03)
8             	upperWall	(-6.789275e-03 -1.751232e-18 -7.765076e-05)	(3.060375e-04 1.820392e-18 1.631942e-04)
8             	lowerWall	(-1.851758e-03 -2.542437e-19 -6.061856e-03)	(2.903632e-03 1.670790e-19 5.569364e-03)
8.5           	upperWall	(-7.363464e-03 -2.041540e-18 -8.523892e-05)	(3.111120e-04 1.974783e-18 1.844186e-04)
8.5           	lowerWall	(-1.818834e-03 -2.096673e-19 -5.955474e-03)	(2.863886e-03 2.279583e-19 5.539095e-03)
9             	upperWall	(-7.828872e-03 -2.666959e-18 -1.623992e-04)	(3.151471e-04 2.043699e-18 1.785534e-04)
9             	lowerWall	(-1.830246e-03 -1.927924e-19 -5.860663e-03)	(2.967444e-03 2.283347e-19 5.182488e-03)
9.5           	upperWall	(-8.200840e-03 -2.822323e-18 -2.673457e-04)	(3.195322e-04 2.023390e-18 1.921467e-04)
9.5           	lowerWall	(-1.826428e-03 -1.606155e-19 -5.755039e-03)	(3.015497e-03 2.702977e-19 5.107944e-03)
10            	upperWall	(-8.717481e-03 -2.594065e-18 -4.155240e-04)	(3.245103e-04 1.992319e-18 1.884427e-04)
10            	lowerWall	(-1.761416e-03 -1.561421e-19 -5.623444e-03)	(3.086693e-03 2.379758e-19 4.859203e-03)
10.5          	upperWall	(-8.980986e-03 -1.921595e-18 -6.015334e-04)	(3.302921e-04 1.911355e-18 2.098049e-04)
10.5          	lowerWall	(-1.773997e-03 -1.501672e-19 -5.478631e-03)	(3.247691e-03 1.505672e-19 4.803963e-03)
11            	upperWall	(-8.996274e-03 -9.619966e-19 -7.905932e-04)	(3.368271e-04 1.848194e-18 2.432616e-04)
11            	lowerWall	(-1.779722e-03 -2.391500e-19 -5.339057e-03)	(3.141680e-03 1.649123e-19 4.374141e-03)
11.5          	upperWall	(-9.200823e-03 -3.347148e-19 -1.019896e-03)	(3.430818e-04 1.727924e-18 2.732043e-04)
11.5          	lowerWall	(-1.784559e-03 -3.744106e-19 -5.216214e-03)	(2.687097e-03 1.869564e-19 3.696897e-03)
12            	upperWall	(-9.414113e-03 -2.197028e-19 -1.264946e-03)	(3.487025e-04 1.589004e-18 3.134604e-04)
12            	lowerWall	(-1.789017e-03 -3.563465e-19 -5.106815e-03)	(2.613735e-03 1.264290e-19 2.311501e-03)
12.5          	upperWall	(-9.469526e-03 -1.517652e-20 -1.512186e-03)	(3.539598e-04 1.426554e-18 3.675819e-04)
12.5          	lowerWall	(-1.791666e-03 -3.436878e-19 -4.984876e-03)	(1.922671e-03 1.315780e-19 1.090665e-03)
13            	upperWall	(-9.360475e-03 -2.069261e-20 -1.691344e-03)	(3.598797e-04 1.232994e-18 4.350908e-04)
13            	lowerWall	(-1.794244e-03 -3.211384e-19 -4.756247e-03)	(2.244879e-03 1.734763e-19 1.331955e-03)
13.5          	upperWall	(-9.261462e-03 -3.074961e-19 -1.720544e-03)	(4.124343e-04 9.819862e-19 4.883444e-04)
13.5          	lowerWall	(-1.793777e-03 -3.089139e-19 -7.891118e-03)	(2.427944e-03 1.095168e-19 1.549867e-03)
14            	upperWall	(-9.138777e-03 -3.108121e-19 -1.654633e-03)	(4.464610e-04 7.021361e-19 5.118537e-04)
14            	lowerWall	(-1.790214e-03 -3.061445e-19 -6.621647e-03)	(2.479452e-03 1.046577e-19 1.703160e-03)
14.5          	upperWall	(-8.861639e-03 -3.183238e-19 -1.532857e-03)	(5.184740e-04 5.826914e-19 5.105496e-04)
14.5          	lowerWall	(-3.319775e-03 -2.867209e-19 -8.154169e-03)	(2.811408e-03 1.097797e-19 1.817479e-03)
15            	upperWall	(-8.638189e-03 -3.270733e-19 -1.413610e-03)	(5.797478e-04 5.198146e-19 5.068802e-04)
15            	lowerWall	(-3.540041e-03 -2.761700e-19 -5.717359e-03)	(3.344964e-03 1.795873e-19 1.915657e-03)
15.5          	upperWall	(-8.508150e-03 -6.006793e-19 -1.318966e-03)	(6.834686e-04 4.662400e-19 5.068284e-04)
15.5          	lowerWall	(-2.374939e-03 -2.631057e-19 -5.883597e-03)	(3.876483e-03 2.021593e-19 1.968891e-03)
16            	upperWall	(-8.224245e-03 -1.359451e-19 -1.205106e-03)	(7.460742e-04 4.105840e-19 4.807973e-04)
16            	lowerWall	(-1.715577e-03 -2.410517e-19 -7.988252e-03)	(4.340694e-03 1.949843e-19 2.012462e-03)
16.5          	upperWall	(-8.009641e-03 -1.259521e-19 -1.093763e-03)	(7.898259e-04 4.030073e-19 4.619770e-04)
16.5          	lowerWall	(-1.683441e-03 -1.853125e-19 -9.645054e-03)	(4.864523e-03 1.585583e-19 2.065552e-03)
17            	upperWall	(-7.803572e-03 -2.388184e-19 -1.020787e-03)	(8.333196e-04 3.947993e-19 4.516917e-04)
17            	lowerWall	(-1.642721e-03 -1.885021e-19 -1.042640e-02)	(5.069140e-03 1.508297e-19 2.126468e-03)
17.5          	upperWall	(-7.566367e-03 -1.940809e-19 -9.442347e-04)	(8.924369e-04 3.773675e-19 4.340529e-04)
17.5          	lowerWall	(-1.590995e-03 -1.503579e-19 -1.096449e-02)	(5.105872e-03 1.439227e-19 2.200713e-03)
18            	upperWall	(-7.283125e-03 -1.431406e-19 -8.833267e-04)	(9.692848e-04 3.564604e-19 4.216467e-04)
18            	lowerWall	(-1.526381e-03 -1.414994e-19 -1.075205e-02)	(5.108024e-03 9.585427e-20 2.232761e-03)
18.5          	upperWall	(-6.968387e-03 -1.262872e-19 -8.172029e-04)	(1.058455e-03 3.350937e-19 4.073607e-04)
18.5          	lowerWall	(-1.445517e-03 -1.825856e-19 -8.509089e-03)	(5.062126e-03 1.367700e-19 2.026268e-03)
19            	upperWall	(-6.680070e-03 -1.292607e-19 -7.611831e-04)	(1.558867e-03 3.108494e-19 4.179601e-04)
19            	lowerWall	(-1.353303e-03 -1.152423e-19 -7.539453e-03)	(4.959271e-03 7.742760e-20 1.839596e-03)
19.5          	upperWall	(-6.573122e-03 -2.032829e-19 -7.273839e-04)	(2.004962e-03 2.868292e-19 4.724947e-04)
19.5          	lowerWall	(-1.310380e-03 -8.646523e-20 -7.668187e-03)	(4.838634e-03 1.851414e-19 1.126340e-03)
